LAMMPS data file by Anton

8252 atoms
4 atom types
8130 bonds
5 bond types

-10 10 xlo xhi
-10 10 ylo yhi
-28.5 28.5 zlo zhi

Atoms

1 1 1 0 -9 -9 -1 0 0 0
2 1 1 0 -9 -9 1 0 0 0
3 1 1 0 -9 -7 -1 0 0 0
4 1 1 0 -9 -7 1 0 0 0
5 1 1 0 -9 -5 -1 0 0 0
6 1 1 0 -9 -5 1 0 0 0
7 1 1 0 -9 -3 -1 0 0 0
8 1 1 0 -9 -3 1 0 0 0
9 1 1 0 -9 -1 -1 0 0 0
10 1 1 0 -9 -1 1 0 0 0
11 1 1 0 -9 1 -1 0 0 0
12 1 1 0 -9 1 1 0 0 0
13 1 1 0 -9 3 -1 0 0 0
14 1 1 0 -9 3 1 0 0 0
15 1 1 0 -9 5 -1 0 0 0
16 1 1 0 -9 5 1 0 0 0
17 1 1 0 -9 7 -1 0 0 0
18 1 1 0 -9 7 1 0 0 0
19 1 1 0 -9 9 -1 0 0 0
20 1 1 0 -9 9 1 0 0 0
21 1 1 0 -7 -9 -1 0 0 0
22 1 1 -10 -7 -9 1 0 0 0
23 1 1 0 -7 -7 -1 0 0 0
24 1 1 0 -7 -7 1 0 0 0
25 1 1 0 -7 -5 -1 0 0 0
26 1 1 0 -7 -5 1 0 0 0
27 1 1 0 -7 -3 -1 0 0 0
28 1 1 -10 -7 -3 1 0 0 0
29 1 1 0 -7 -1 -1 0 0 0
30 1 1 0 -7 -1 1 0 0 0
31 1 1 0 -7 1 -1 0 0 0
32 1 1 0 -7 1 1 0 0 0
33 1 1 0 -7 3 -1 0 0 0
34 1 1 0 -7 3 1 0 0 0
35 1 1 0 -7 5 -1 0 0 0
36 1 1 0 -7 5 1 0 0 0
37 1 1 0 -7 7 -1 0 0 0
38 1 1 0 -7 7 1 0 0 0
39 1 1 0 -7 9 -1 0 0 0
40 1 1 0 -7 9 1 0 0 0
41 1 1 0 -5 -9 -1 0 0 0
42 1 1 0 -5 -9 1 0 0 0
43 1 1 0 -5 -7 -1 0 0 0
44 1 1 0 -5 -7 1 0 0 0
45 1 1 0 -5 -5 -1 0 0 0
46 1 1 0 -5 -5 1 0 0 0
47 1 1 0 -5 -3 -1 0 0 0
48 1 1 0 -5 -3 1 0 0 0
49 1 1 0 -5 -1 -1 0 0 0
50 1 1 -10 -5 -1 1 0 0 0
51 1 1 0 -5 1 -1 0 0 0
52 1 1 0 -5 1 1 0 0 0
53 1 1 0 -5 3 -1 0 0 0
54 1 1 0 -5 3 1 0 0 0
55 1 1 0 -5 5 -1 0 0 0
56 1 1 0 -5 5 1 0 0 0
57 1 1 0 -5 7 -1 0 0 0
58 1 1 0 -5 7 1 0 0 0
59 1 1 0 -5 9 -1 0 0 0
60 1 1 0 -5 9 1 0 0 0
61 1 1 0 -3 -9 -1 0 0 0
62 1 1 0 -3 -9 1 0 0 0
63 1 1 0 -3 -7 -1 0 0 0
64 1 1 0 -3 -7 1 0 0 0
65 1 1 0 -3 -5 -1 0 0 0
66 1 1 0 -3 -5 1 0 0 0
67 1 1 0 -3 -3 -1 0 0 0
68 1 1 0 -3 -3 1 0 0 0
69 1 1 0 -3 -1 -1 0 0 0
70 1 1 0 -3 -1 1 0 0 0
71 1 1 0 -3 1 -1 0 0 0
72 1 1 0 -3 1 1 0 0 0
73 1 1 0 -3 3 -1 0 0 0
74 1 1 0 -3 3 1 0 0 0
75 1 1 0 -3 5 -1 0 0 0
76 1 1 0 -3 5 1 0 0 0
77 1 1 0 -3 7 -1 0 0 0
78 1 1 0 -3 7 1 0 0 0
79 1 1 0 -3 9 -1 0 0 0
80 1 1 0 -3 9 1 0 0 0
81 1 1 0 -1 -9 -1 0 0 0
82 1 1 0 -1 -9 1 0 0 0
83 1 1 0 -1 -7 -1 0 0 0
84 1 1 0 -1 -7 1 0 0 0
85 1 1 0 -1 -5 -1 0 0 0
86 1 1 0 -1 -5 1 0 0 0
87 1 1 -10 -1 -3 -1 0 0 0
88 1 1 0 -1 -3 1 0 0 0
89 1 1 0 -1 -1 -1 0 0 0
90 1 1 0 -1 -1 1 0 0 0
91 1 1 0 -1 1 -1 0 0 0
92 1 1 0 -1 1 1 0 0 0
93 1 1 -10 -1 3 -1 0 0 0
94 1 1 0 -1 3 1 0 0 0
95 1 1 0 -1 5 -1 0 0 0
96 1 1 0 -1 5 1 0 0 0
97 1 1 0 -1 7 -1 0 0 0
98 1 1 0 -1 7 1 0 0 0
99 1 1 0 -1 9 -1 0 0 0
100 1 1 0 -1 9 1 0 0 0
101 1 1 0 1 -9 -1 0 0 0
102 1 1 0 1 -9 1 0 0 0
103 1 1 0 1 -7 -1 0 0 0
104 1 1 0 1 -7 1 0 0 0
105 1 1 0 1 -5 -1 0 0 0
106 1 1 0 1 -5 1 0 0 0
107 1 1 0 1 -3 -1 0 0 0
108 1 1 0 1 -3 1 0 0 0
109 1 1 0 1 -1 -1 0 0 0
110 1 1 0 1 -1 1 0 0 0
111 1 1 0 1 1 -1 0 0 0
112 1 1 0 1 1 1 0 0 0
113 1 1 0 1 3 -1 0 0 0
114 1 1 0 1 3 1 0 0 0
115 1 1 0 1 5 -1 0 0 0
116 1 1 -10 1 5 1 0 0 0
117 1 1 0 1 7 -1 0 0 0
118 1 1 0 1 7 1 0 0 0
119 1 1 0 1 9 -1 0 0 0
120 1 1 0 1 9 1 0 0 0
121 1 1 0 3 -9 -1 0 0 0
122 1 1 0 3 -9 1 0 0 0
123 1 1 0 3 -7 -1 0 0 0
124 1 1 0 3 -7 1 0 0 0
125 1 1 0 3 -5 -1 0 0 0
126 1 1 0 3 -5 1 0 0 0
127 1 1 0 3 -3 -1 0 0 0
128 1 1 0 3 -3 1 0 0 0
129 1 1 0 3 -1 -1 0 0 0
130 1 1 0 3 -1 1 0 0 0
131 1 1 0 3 1 -1 0 0 0
132 1 1 0 3 1 1 0 0 0
133 1 1 0 3 3 -1 0 0 0
134 1 1 0 3 3 1 0 0 0
135 1 1 0 3 5 -1 0 0 0
136 1 1 -10 3 5 1 0 0 0
137 1 1 0 3 7 -1 0 0 0
138 1 1 0 3 7 1 0 0 0
139 1 1 0 3 9 -1 0 0 0
140 1 1 0 3 9 1 0 0 0
141 1 1 0 5 -9 -1 0 0 0
142 1 1 0 5 -9 1 0 0 0
143 1 1 0 5 -7 -1 0 0 0
144 1 1 0 5 -7 1 0 0 0
145 1 1 0 5 -5 -1 0 0 0
146 1 1 0 5 -5 1 0 0 0
147 1 1 0 5 -3 -1 0 0 0
148 1 1 0 5 -3 1 0 0 0
149 1 1 0 5 -1 -1 0 0 0
150 1 1 0 5 -1 1 0 0 0
151 1 1 0 5 1 -1 0 0 0
152 1 1 0 5 1 1 0 0 0
153 1 1 0 5 3 -1 0 0 0
154 1 1 0 5 3 1 0 0 0
155 1 1 0 5 5 -1 0 0 0
156 1 1 0 5 5 1 0 0 0
157 1 1 0 5 7 -1 0 0 0
158 1 1 0 5 7 1 0 0 0
159 1 1 0 5 9 -1 0 0 0
160 1 1 0 5 9 1 0 0 0
161 1 1 0 7 -9 -1 0 0 0
162 1 1 0 7 -9 1 0 0 0
163 1 1 -10 7 -7 -1 0 0 0
164 1 1 0 7 -7 1 0 0 0
165 1 1 0 7 -5 -1 0 0 0
166 1 1 0 7 -5 1 0 0 0
167 1 1 0 7 -3 -1 0 0 0
168 1 1 0 7 -3 1 0 0 0
169 1 1 0 7 -1 -1 0 0 0
170 1 1 0 7 -1 1 0 0 0
171 1 1 0 7 1 -1 0 0 0
172 1 1 0 7 1 1 0 0 0
173 1 1 0 7 3 -1 0 0 0
174 1 1 0 7 3 1 0 0 0
175 1 1 0 7 5 -1 0 0 0
176 1 1 0 7 5 1 0 0 0
177 1 1 0 7 7 -1 0 0 0
178 1 1 -10 7 7 1 0 0 0
179 1 1 0 7 9 -1 0 0 0
180 1 1 0 7 9 1 0 0 0
181 1 1 0 9 -9 -1 0 0 0
182 1 1 0 9 -9 1 0 0 0
183 1 1 0 9 -7 -1 0 0 0
184 1 1 -10 9 -7 1 0 0 0
185 1 1 0 9 -5 -1 0 0 0
186 1 1 0 9 -5 1 0 0 0
187 1 1 -10 9 -3 -1 0 0 0
188 1 1 0 9 -3 1 0 0 0
189 1 1 0 9 -1 -1 0 0 0
190 1 1 0 9 -1 1 0 0 0
191 1 1 0 9 1 -1 0 0 0
192 1 1 0 9 1 1 0 0 0
193 1 1 0 9 3 -1 0 0 0
194 1 1 -10 9 3 1 0 0 0
195 1 1 0 9 5 -1 0 0 0
196 1 1 0 9 5 1 0 0 0
197 1 1 0 9 7 -1 0 0 0
198 1 1 0 9 7 1 0 0 0
199 1 1 0 9 9 -1 0 0 0
200 1 1 0 9 9 1 0 0 0
201 1 2 10 -1.86932 1.60987 -3.46347 0 0 0
202 1 3 0 -0.57227 2.98802 -4.11027 0 0 0
203 1 3 0 -0.734234 4.92055 -3.62128 0 0 0
204 1 2 10 -2.87527 0.316819 -6.06754 0 0 0
205 1 3 0 -1.87235 -0.760768 -4.71367 0 0 0
206 1 3 0 0.0174751 -0.638561 -5.3568 0 0 0
207 1 2 10 -2.91021 1.4391 -3.94097 0 0 0
208 1 3 0 -4.64433 1.52601 -4.93357 0 0 0
209 1 3 0 -3.75968 1.64784 -6.72313 0 0 0
210 1 2 10 -2.06265 -4.26312 -6.64378 0 0 0
211 1 3 0 -2.14434 -4.15346 -4.64846 0 0 0
212 1 3 0 -2.22453 -4.02575 -2.65415 0 0 0
213 1 2 10 -4.65847 -0.0378084 -18.5519 0 0 0
214 1 3 0 -4.67736 -2.0276 -18.3509 0 0 0
215 1 3 0 -5.66294 -2.97838 -19.8085 0 0 0
216 1 2 10 1.34758 0.950815 -10.7852 0 0 0
217 1 3 0 0.870839 -0.991076 -10.8273 0 0 0
218 1 3 0 2.11368 0.057411 -11.9918 0 0 0
219 1 2 10 0.418048 0.835088 -4.16504 0 0 0
220 1 3 0 1.48222 -0.329039 -5.39481 0 0 0
221 1 3 0 0.828266 1.18197 -6.53024 0 0 0
222 1 2 10 -2.82531 -1.58833 -7.61417 0 0 0
223 1 3 0 -1.62017 -2.74678 -6.51616 0 0 0
224 1 3 0 -0.415299 -2.89657 -8.10545 0 0 0
225 1 2 10 -1.318 2.61097 -6.14932 0 0 0
226 1 3 0 0.477869 2.63461 -7.02927 0 0 0
227 1 3 0 -0.268664 1.29599 -8.3141 0 0 0
228 1 2 10 0.0305101 -1.87106 -6.5715 0 0 0
229 1 3 0 0.551297 -1.26519 -4.738 0 0 0
230 1 3 0 1.67288 -2.81408 -4.15234 0 0 0
231 1 2 10 -3.41522 -1.77528 -19.8389 0 0 0
232 1 3 0 -4.23031 -1.37199 -21.6202 0 0 0
233 1 3 0 -4.83006 -0.147014 -23.083 0 0 0
234 1 2 10 3.98787 -0.856811 -3.71887 0 0 0
235 1 3 0 4.0841 -1.03403 -5.70867 0 0 0
236 1 3 0 3.22521 -2.50047 -6.76312 0 0 0
237 1 2 10 4.73511 1.56282 -7.45925 0 0 0
238 1 3 0 5.16917 -0.386133 -7.57401 0 0 0
239 1 3 0 5.38856 1.2729 -6.47881 0 0 0
240 1 2 10 -0.634524 0.819496 -12.1851 0 0 0
241 1 3 0 -0.681134 0.806246 -10.1857 0 0 0
242 1 3 0 -0.0653446 -1.0867 -10.3794 0 0 0
243 1 2 10 -4.44342 0.114425 -11.0005 0 0 0
244 1 3 0 -5.01905 0.321388 -12.9047 0 0 0
245 1 3 0 -6.44486 -1.07124 -13.0709 0 0 0
246 1 2 10 4.07 0.850819 -10.2247 0 0 0
247 1 3 0 4.08992 0.0442423 -12.0547 0 0 0
248 1 3 0 5.45905 -0.328952 -10.6454 0 0 0
249 1 2 10 2.20466 1.59727 -16.9604 0 0 0
250 1 3 0 2.82677 -0.0524282 -17.9046 0 0 0
251 1 3 0 2.74784 -0.00748826 -19.9025 0 0 0
252 1 2 10 -0.561446 2.75307 -12.6289 0 0 0
253 1 3 0 0.449219 1.10455 -13.1396 0 0 0
254 1 3 0 1.1932 0.163079 -14.7397 0 0 0
255 1 2 10 0.828151 1.29007 -15.7765 0 0 0
256 1 3 0 -0.041825 1.34589 -17.5765 0 0 0
257 1 3 0 0.994465 -0.243115 -18.2099 0 0 0
258 1 2 10 3.17222 -0.591342 -9.70711 0 0 0
259 1 3 0 3.56628 -2.02838 -11.0411 0 0 0
260 1 3 0 2.99398 -3.51336 -9.82982 0 0 0
261 1 2 10 0.104567 2.74519 -15.2735 0 0 0
262 1 3 0 -1.37841 1.78855 -14.3325 0 0 0
263 1 3 0 -0.545896 3.56032 -14.742 0 0 0
264 1 2 10 -0.667245 -0.397516 -6.99867 0 0 0
265 1 3 0 -0.848967 -0.722535 -8.96369 0 0 0
266 1 3 0 0.721051 -0.185336 -10.0801 0 0 0
267 1 2 10 2.61338 0.332761 -21.2189 0 0 0
268 1 3 0 0.745703 0.0899699 -21.8918 0 0 0
269 1 3 0 1.60895 1.32771 -20.5793 0 0 0
270 1 2 10 -3.26015 0.65938 -7.94453 0 0 0
271 1 3 0 -3.90366 0.864695 -6.06205 0 0 0
272 1 3 0 -2.72087 2.47678 -6.10861 0 0 0
273 1 4 0 -11.7469 -14.7191 -9.37587 0 0 0
274 1 4 0 -11.8724 -15.2461 -7.45065 0 0 0
275 1 4 0 -11.7738 -15.0571 -5.46204 0 0 0
276 1 4 0 -13.3549 -16.2807 -5.40615 0 0 0
277 1 4 0 -14.0533 -15.9046 -3.5702 0 0 0
278 1 4 0 -14.6364 -14.6097 -4.97846 0 0 0
279 1 4 0 -12.7465 -14.4875 -5.62159 0 0 0
280 1 4 0 -13.0606 -15.0209 -3.71981 0 0 0
281 1 4 0 -11.8585 -16.6185 -3.66974 0 0 0
282 1 4 0 -12.512 -17.8802 -5.07722 0 0 0
283 1 4 0 -17.3718 -5.55294 -6.56893 0 0 0
284 1 4 0 -18.407 -5.49501 -4.85867 0 0 0
285 1 4 0 -17.1099 -4.11686 -5.50547 0 0 0
286 1 4 0 -17.2719 -2.18433 -5.01648 0 0 0
287 1 4 0 -17.2197 -2.14632 -3.01752 0 0 0
288 1 4 0 -17.2386 -4.13611 -2.81656 0 0 0
289 1 4 0 -17.7153 -6.078 -2.8587 0 0 0
290 1 4 0 -16.4725 -5.02952 -4.02318 0 0 0
291 1 4 0 -15.7729 -4.37914 -5.78034 0 0 0
292 1 4 0 -16.2233 -6.17076 -5.01405 0 0 0
293 1 4 0 -17.2289 -9.8018 -20.689 0 0 0
294 1 4 0 -16.226 -10.8794 -19.3351 0 0 0
295 1 4 0 -14.3362 -10.7572 -19.9782 0 0 0
296 1 4 0 -14.6503 -11.2906 -18.0765 0 0 0
297 1 4 0 -13.4481 -12.8882 -18.0264 0 0 0
298 1 4 0 -13.5298 -12.7786 -16.0311 0 0 0
299 1 4 0 -13.61 -12.6509 -14.0368 0 0 0
300 1 4 0 -15.4896 -12.2673 -13.4712 0 0 0
301 1 4 0 -16.1432 -13.529 -14.8787 0 0 0
302 1 4 0 -16.0501 -15.0197 -13.5485 0 0 0
303 1 4 0 -16.0661 -3.63703 -13.2404 0 0 0
304 1 4 0 -16.0139 -3.59903 -11.2415 0 0 0
305 1 4 0 -17.748 -3.51212 -12.2341 0 0 0
306 1 4 0 -16.8634 -3.39029 -14.0236 0 0 0
307 1 4 0 -15.0963 -3.12154 -13.1263 0 0 0
308 1 4 0 -16.5667 -2.17198 -12.1586 0 0 0
309 1 4 0 -16.5855 -4.16176 -11.9576 0 0 0
310 1 4 0 -17.5711 -5.11255 -13.4152 0 0 0
311 1 4 0 -19.3428 -4.8058 -12.5395 0 0 0
312 1 4 0 -18.8095 -2.89315 -12.779 0 0 0
313 1 4 0 -18.5923 -19.5942 -19.0274 0 0 0
314 1 4 0 -18.674 -19.4845 -17.0321 0 0 0
315 1 4 0 -20.5536 -19.1009 -16.4665 0 0 0
316 1 4 0 -21.2072 -20.3626 -17.874 0 0 0
317 1 4 0 -21.1141 -21.8533 -16.5438 0 0 0
318 1 4 0 -22.2574 -20.3931 -17.2926 0 0 0
319 1 4 0 -24.1929 -20.8669 -17.1214 0 0 0
320 1 4 0 -25.4013 -20.9179 -15.5285 0 0 0
321 1 4 0 -25.9081 -22.4078 -16.7627 0 0 0
322 1 4 0 -25.5347 -22.984 -14.8842 0 0 0
323 1 4 0 -10.5477 -6.5209 -17.2559 0 0 0
324 1 4 0 -11.691 -5.06071 -18.0046 0 0 0
325 1 4 0 -13.6265 -5.53451 -17.8334 0 0 0
326 1 4 0 -14.8349 -5.58546 -16.2405 0 0 0
327 1 4 0 -15.3417 -7.07545 -17.4747 0 0 0
328 1 4 0 -14.9683 -7.65159 -15.5962 0 0 0
329 1 4 0 -15.4851 -7.13376 -13.7348 0 0 0
330 1 4 0 -14.421 -8.29788 -14.9646 0 0 0
331 1 4 0 -15.0749 -6.78687 -16.1 0 0 0
332 1 4 0 -13.279 -6.76323 -16.98 0 0 0
333 1 4 0 -7.02388 -10.9728 -30.2948 0 0 0
334 1 4 0 -7.50063 -12.9147 -30.3369 0 0 0
335 1 4 0 -6.25779 -11.8663 -31.5014 0 0 0
336 1 4 0 -5.55821 -11.2159 -33.2585 0 0 0
337 1 4 0 -6.00865 -13.0075 -32.4922 0 0 0
338 1 4 0 -6.29532 -13.7614 -34.3224 0 0 0
339 1 4 0 -5.09018 -14.9199 -33.2244 0 0 0
340 1 4 0 -3.8853 -15.0697 -34.8137 0 0 0
341 1 4 0 -5.01046 -16.5204 -34.0204 0 0 0
342 1 4 0 -5.01276 -16.5334 -32.0204 0 0 0
343 1 4 0 -9.49253 -6.34245 -15.3455 0 0 0
344 1 4 0 -10.0093 -5.82462 -13.4841 0 0 0
345 1 4 0 -8.94515 -6.98875 -14.7139 0 0 0
346 1 4 0 -9.5991 -5.47774 -15.8493 0 0 0
347 1 4 0 -9.40268 -6.19854 -17.7046 0 0 0
348 1 4 0 -9.48739 -6.10853 -19.7008 0 0 0
349 1 4 0 -7.69152 -6.08488 -20.5807 0 0 0
350 1 4 0 -8.43806 -7.4235 -21.8655 0 0 0
351 1 4 0 -7.73302 -6.97717 -20.0479 0 0 0
352 1 4 0 -8.68694 -6.33242 -21.6833 0 0 0
353 1 4 0 -17.9026 -13.2571 -18.3146 0 0 0
354 1 4 0 -16.6975 -14.4156 -17.2166 0 0 0
355 1 4 0 -15.4926 -14.5654 -18.8059 0 0 0
356 1 4 0 -16.6178 -16.0161 -18.0126 0 0 0
357 1 4 0 -16.6201 -16.0291 -16.0127 0 0 0
358 1 4 0 -16.4323 -16.5534 -14.0918 0 0 0
359 1 4 0 -15.3107 -18.1023 -13.5061 0 0 0
360 1 4 0 -15.1746 -20.045 -13.0507 0 0 0
361 1 4 0 -13.5184 -20.4143 -11.9921 0 0 0
362 1 4 0 -13.4222 -20.5915 -13.9819 0 0 0
363 1 4 0 -13.7846 -2.34713 -13.8326 0 0 0
364 1 4 0 -11.9887 -2.32348 -14.7126 0 0 0
365 1 4 0 -12.7352 -3.6621 -15.9974 0 0 0
366 1 4 0 -12.0302 -3.21577 -14.1798 0 0 0
367 1 4 0 -12.9841 -2.57102 -15.8151 0 0 0
368 1 4 0 -13.7992 -2.16773 -17.5964 0 0 0
369 1 4 0 -14.3989 -0.942757 -19.0592 0 0 0
370 1 4 0 -14.1844 -0.986687 -21.0472 0 0 0
371 1 4 0 -14.6385 -1.9029 -22.766 0 0 0
372 1 4 0 -13.0224 -2.53454 -23.7606 0 0 0
373 1 4 0 -8.036 -18.5098 -16.855 0 0 0
374 1 4 0 -7.51521 -17.9039 -15.0215 0 0 0
375 1 4 0 -7.32744 -18.4282 -13.1006 0 0 0
376 1 4 0 -6.20586 -19.9771 -12.5149 0 0 0
377 1 4 0 -6.06979 -21.9198 -12.0595 0 0 0
378 1 4 0 -4.41357 -22.2891 -11.0009 0 0 0
379 1 4 0 -4.31735 -22.4663 -12.9908 0 0 0
380 1 4 0 -5.17624 -23.9328 -14.0452 0 0 0
381 1 4 0 -5.54423 -23.9752 -16.0106 0 0 0
382 1 4 0 -6.30059 -25.0549 -14.5065 0 0 0
383 1 4 0 -18.3378 -16.6153 -53.5155 0 0 0
384 1 4 0 -17.9038 -18.5643 -53.6302 0 0 0
385 1 4 0 -17.6844 -16.9053 -52.535 0 0 0
386 1 4 0 -15.9123 -16.8193 -53.4583 0 0 0
387 1 4 0 -15.4391 -17.3373 -51.5854 0 0 0
388 1 4 0 -15.4487 -15.9407 -53.017 0 0 0
389 1 4 0 -14.8266 -17.5904 -53.9612 0 0 0
390 1 4 0 -14.071 -17.8326 -52.1253 0 0 0
391 1 4 0 -12.2607 -18.3093 -51.4212 0 0 0
392 1 4 0 -10.5131 -17.7274 -52.2004 0 0 0
393 1 4 0 -1.34883 -11.8318 -12.5571 0 0 0
394 1 4 0 -1.2526 -12.009 -14.5469 0 0 0
395 1 4 0 -2.11149 -13.4755 -15.6014 0 0 0
396 1 4 0 -2.47948 -13.5179 -17.5668 0 0 0
397 1 4 0 -2.98025 -12.3714 -19.1271 0 0 0
398 1 4 0 -3.73661 -13.4511 -17.6231 0 0 0
399 1 4 0 -3.78322 -13.4644 -15.6237 0 0 0
400 1 4 0 -3.16743 -15.3573 -15.8174 0 0 0
401 1 4 0 -1.54639 -16.5187 -15.9705 0 0 0
402 1 4 0 -3.48945 -16.8451 -15.6271 0 0 0
403 1 4 0 0.973106 -4.04826 -19.4189 0 0 0
404 1 4 0 1.40716 -5.99721 -19.5336 0 0 0
405 1 4 0 1.62656 -4.33818 -18.4384 0 0 0
406 1 4 0 3.3986 -4.25223 -19.3617 0 0 0
407 1 4 0 2.2371 -4.43168 -20.98 0 0 0
408 1 4 0 1.66147 -4.22472 -22.8841 0 0 0
409 1 4 0 0.235655 -5.61735 -23.0504 0 0 0
410 1 4 0 0.70894 -6.13536 -21.1775 0 0 0
411 1 4 0 0.699319 -4.73875 -22.6091 0 0 0
412 1 4 0 0.451811 -4.83435 -24.5914 0 0 0
413 1 4 0 -10.3909 -5.38215 -37.5101 0 0 0
414 1 4 0 -10.4375 -5.3954 -35.5107 0 0 0
415 1 4 0 -9.82167 -7.28835 -35.7044 0 0 0
416 1 4 0 -8.20063 -8.44971 -35.8576 0 0 0
417 1 4 0 -10.1437 -8.77615 -35.5141 0 0 0
418 1 4 0 -8.74741 -7.55912 -36.2686 0 0 0
419 1 4 0 -8.72749 -8.36569 -38.0986 0 0 0
420 1 4 0 -7.35836 -8.73889 -36.6893 0 0 0
421 1 4 0 -8.44812 -10.3754 -37.0558 0 0 0
422 1 4 0 -7.31514 -10.4786 -38.7007 0 0 0
423 1 4 0 -21.0072 -9.29782 -28.3578 0 0 0
424 1 4 0 -21.5829 -9.09086 -30.2619 0 0 0
425 1 4 0 -23.0087 -10.4835 -30.4282 0 0 0
426 1 4 0 -22.5354 -11.0015 -28.5553 0 0 0
427 1 4 0 -22.545 -9.60489 -29.9869 0 0 0
428 1 4 0 -22.7925 -9.70049 -31.9692 0 0 0
429 1 4 0 -22.1704 -11.3502 -32.9134 0 0 0
430 1 4 0 -22.2493 -11.3052 -34.9113 0 0 0
431 1 4 0 -20.4391 -11.7819 -34.2072 0 0 0
432 1 4 0 -18.6915 -11.2 -34.9864 0 0 0
433 1 4 0 -2.89102 -5.01699 -44.6698 0 0 0
434 1 4 0 -2.2689 -6.66669 -45.614 0 0 0
435 1 4 0 -2.34784 -6.62175 -47.6119 0 0 0
436 1 4 0 -0.537584 -7.09838 -46.9078 0 0 0
437 1 4 0 1.21006 -6.51651 -47.687 0 0 0
438 1 4 0 1.58781 -6.0253 -49.5886 0 0 0
439 1 4 0 1.80112 -5.06337 -51.3291 0 0 0
440 1 4 0 -0.04141 -4.93316 -50.5622 0 0 0
441 1 4 0 0.080726 -4.91535 -48.566 0 0 0
442 1 4 0 1.80977 -5.85581 -48.2111 0 0 0
443 1 4 0 0.760073 -11.7086 -3.11475 0 0 0
444 1 4 0 1.13782 -11.2174 -5.01633 0 0 0
445 1 4 0 1.35114 -10.2554 -6.75679 0 0 0
446 1 4 0 -0.491398 -10.1252 -5.9899 0 0 0
447 1 4 0 -0.369262 -10.1074 -3.99371 0 0 0
448 1 4 0 1.35978 -11.0479 -3.63882 0 0 0
449 1 4 0 3.31381 -11.4244 -3.43875 0 0 0
450 1 4 0 1.59119 -12.4027 -3.71334 0 0 0
451 1 4 0 1.8713 -13.3628 -5.44529 0 0 0
452 1 4 0 1.00132 -13.307 -7.2453 0 0 0
453 1 4 0 -2.88916 -16.2001 -7.78655 0 0 0
454 1 4 0 -2.55147 -14.2301 -7.71601 0 0 0
455 1 4 0 -2.05076 -14.1679 -9.65132 0 0 0
456 1 4 0 -2.53392 -14.0698 -11.5896 0 0 0
457 1 4 0 -2.7168 -14.1215 -13.5805 0 0 0
458 1 4 0 -1.70614 -15.77 -14.0913 0 0 0
459 1 4 0 -3.30414 -16.971 -14.0273 0 0 0
460 1 4 0 -2.50816 -17.4943 -15.7858 0 0 0
461 1 4 0 -2.1141 -18.9313 -17.1199 0 0 0
462 1 4 0 -2.6864 -20.4163 -15.9085 0 0 0
463 1 4 0 -11.3186 -1.63739 -32.309 0 0 0
464 1 4 0 -10.3079 -3.28592 -32.8198 0 0 0
465 1 4 0 -9.50329 -4.68017 -31.6329 0 0 0
466 1 4 0 -8.75931 -5.62164 -33.2329 0 0 0
467 1 4 0 -10.3573 -6.82259 -33.1689 0 0 0
468 1 4 0 -9.96325 -8.25963 -34.5029 0 0 0
469 1 4 0 -10.5356 -9.74461 -33.2916 0 0 0
470 1 4 0 -11.6149 -8.13604 -32.7941 0 0 0
471 1 4 0 -13.3725 -8.90514 -33.3592 0 0 0
472 1 4 0 -13.0002 -9.91054 -31.6709 0 0 0
473 1 4 0 -8.07577 -4.20952 -41.759 0 0 0
474 1 4 0 -8.94575 -4.1537 -43.559 0 0 0
475 1 4 0 -7.90946 -5.7427 -44.1924 0 0 0
476 1 4 0 -7.97264 -6.31267 -46.1084 0 0 0
477 1 4 0 -8.29569 -5.1436 -47.6986 0 0 0
478 1 4 0 -9.74065 -4.34905 -48.8303 0 0 0
479 1 4 0 -11.2236 -5.3057 -47.8893 0 0 0
480 1 4 0 -10.3911 -3.53393 -48.2988 0 0 0
481 1 4 0 -9.32779 -3.95194 -49.9404 0 0 0
482 1 4 0 -7.63208 -3.63473 -50.9523 0 0 0
483 1 4 0 -2.0753 -10.7273 -24.4119 0 0 0
484 1 4 0 -1.68124 -12.1644 -25.746 0 0 0
485 1 4 0 -2.25354 -13.6493 -24.5346 0 0 0
486 1 4 0 -3.3329 -12.0408 -24.0372 0 0 0
487 1 4 0 -5.0905 -12.8099 -24.6023 0 0 0
488 1 4 0 -4.71815 -13.8153 -22.9139 0 0 0
489 1 4 0 -4.89987 -14.1403 -24.879 0 0 0
490 1 4 0 -3.32985 -13.6031 -25.9954 0 0 0
491 1 4 0 -3.60647 -11.6265 -26.1246 0 0 0
492 1 4 0 -4.24998 -11.4212 -24.2421 0 0 0
493 1 4 0 -6.79638 -3.35352 -41.4359 0 0 0
494 1 4 0 -8.27935 -4.31017 -40.4948 0 0 0
495 1 4 0 -7.44684 -2.5384 -40.9044 0 0 0
496 1 4 0 -6.38351 -2.95641 -42.5459 0 0 0
497 1 4 0 -4.68781 -2.6392 -43.5579 0 0 0
498 1 4 0 -5.01035 -3.43218 -45.3654 0 0 0
499 1 4 0 -6.87802 -3.67497 -46.0383 0 0 0
500 1 4 0 -6.01478 -2.43723 -44.7258 0 0 0
501 1 4 0 -5.52493 -2.03375 -42.8291 0 0 0
502 1 4 0 -3.70597 -2.80625 -42.5215 0 0 0
503 1 4 0 -12.7464 -9.18176 -23.0696 0 0 0
504 1 4 0 -12.9282 -9.50678 -25.0347 0 0 0
505 1 4 0 -11.3581 -8.96958 -26.1511 0 0 0
506 1 4 0 -11.6348 -6.99301 -26.2803 0 0 0
507 1 4 0 -10.8959 -6.43624 -24.5071 0 0 0
508 1 4 0 -11.5394 -6.23092 -22.6247 0 0 0
509 1 4 0 -13.0088 -5.49248 -21.4864 0 0 0
510 1 4 0 -11.826 -3.88039 -21.533 0 0 0
511 1 4 0 -11.7155 -2.15193 -20.5329 0 0 0
512 1 4 0 -11.9704 -2.4108 -22.4996 0 0 0
513 1 4 0 -19.2272 -11.975 -22.4029 0 0 0
514 1 4 0 -18.4884 -11.4182 -20.6298 0 0 0
515 1 4 0 -19.1319 -11.2129 -18.7473 0 0 0
516 1 4 0 -20.6013 -10.4745 -17.609 0 0 0
517 1 4 0 -19.4185 -8.86237 -17.6556 0 0 0
518 1 4 0 -19.308 -7.1339 -16.6555 0 0 0
519 1 4 0 -19.5629 -7.39277 -18.6222 0 0 0
520 1 4 0 -19.8398 -7.06591 -20.5758 0 0 0
521 1 4 0 -20.0243 -7.09215 -22.5671 0 0 0
522 1 4 0 -19.7597 -6.72611 -24.5154 0 0 0
523 1 4 0 -15.1196 -18.7169 -50.4417 0 0 0
524 1 4 0 -15.327 -18.1656 -52.353 0 0 0
525 1 4 0 -17.2709 -18.2562 -51.8915 0 0 0
526 1 4 0 -17.7228 -17.4734 -50.1074 0 0 0
527 1 4 0 -16.4447 -17.9623 -48.6488 0 0 0
528 1 4 0 -14.7691 -18.7341 -49.4212 0 0 0
529 1 4 0 -12.9861 -19.071 -48.5801 0 0 0
530 1 4 0 -11.1946 -19.9488 -48.7212 0 0 0
531 1 4 0 -11.6277 -19.1484 -46.9403 0 0 0
532 1 4 0 -11.8867 -20.9349 -46.0794 0 0 0
533 1 4 0 -0.720427 -12.2423 -32.7712 0 0 0
534 1 4 0 -0.609942 -10.5138 -31.7711 0 0 0
535 1 4 0 -0.864866 -10.7727 -33.7378 0 0 0
536 1 4 0 -1.14169 -10.4458 -35.6914 0 0 0
537 1 4 0 -1.32628 -10.4721 -37.6827 0 0 0
538 1 4 0 -1.06164 -10.106 -39.631 0 0 0
539 1 4 0 0.0976086 -11.374 -38.6071 0 0 0
540 1 4 0 -1.41288 -11.4476 -39.9159 0 0 0
541 1 4 0 -0.759999 -11.7479 -38.0495 0 0 0
542 1 4 0 -0.941925 -11.6345 -36.061 0 0 0
543 1 4 0 -12.4986 -0.228274 -29.1671 0 0 0
544 1 4 0 -11.3394 -1.49627 -28.1433 0 0 0
545 1 4 0 -12.8499 -1.56991 -29.4521 0 0 0
546 1 4 0 -12.197 -1.87013 -27.5856 0 0 0
547 1 4 0 -12.4011 -0.258963 -26.4184 0 0 0
548 1 4 0 -12.583 -0.145574 -24.4299 0 0 0
549 1 4 0 -11.0724 -0.431133 -25.7091 0 0 0
550 1 4 0 -9.42309 -0.135946 -24.617 0 0 0
551 1 4 0 -8.57847 -1.83175 -23.976 0 0 0
552 1 4 0 -8.71461 -2.88101 -22.2788 0 0 0
553 1 4 0 -13.6805 -4.42907 -9.44272 0 0 0
554 1 4 0 -15.3742 -3.36654 -9.49143 0 0 0
555 1 4 0 -15.2369 -3.2424 -7.50002 0 0 0
556 1 4 0 -13.7709 -2.9226 -6.17767 0 0 0
557 1 4 0 -14.1205 -4.8134 -5.6275 0 0 0
558 1 4 0 -14.1958 -4.64272 -7.61878 0 0 0
559 1 4 0 -12.8109 -4.06005 -8.93888 0 0 0
560 1 4 0 -13.2621 -3.48349 -7.0777 0 0 0
561 1 4 0 -14.9607 -3.66732 -6.03792 0 0 0
562 1 4 0 -14.5085 -2.13092 -4.84 0 0 0
563 1 4 0 -9.19206 -12.0836 -53.4518 0 0 0
564 1 4 0 -9.39621 -10.4725 -52.2846 0 0 0
565 1 4 0 -9.57813 -10.3591 -50.2961 0 0 0
566 1 4 0 -8.06749 -10.6446 -51.5753 0 0 0
567 1 4 0 -6.41818 -10.3495 -50.4832 0 0 0
568 1 4 0 -5.57357 -12.0453 -49.8422 0 0 0
569 1 4 0 -5.70971 -13.0945 -48.145 0 0 0
570 1 4 0 -5.42011 -12.825 -46.1846 0 0 0
571 1 4 0 -3.62316 -12.885 -45.3086 0 0 0
572 1 4 0 -4.54039 -11.1117 -45.1901 0 0 0
573 1 4 0 -16.9024 -4.83416 -51.5259 0 0 0
574 1 4 0 -16.9355 -4.8302 -53.5256 0 0 0
575 1 4 0 -18.6341 -5.01403 -52.4858 0 0 0
576 1 4 0 -20.5311 -4.73 -51.9195 0 0 0
577 1 4 0 -20.6852 -3.81303 -53.6902 0 0 0
578 1 4 0 -20.233 -2.27663 -52.4923 0 0 0
579 1 4 0 -20.2256 -2.29785 -50.4924 0 0 0
580 1 4 0 -18.3956 -1.9119 -51.201 0 0 0
581 1 4 0 -18.8699 -2.05513 -53.1386 0 0 0
582 1 4 0 -18.2345 -0.439181 -52.1462 0 0 0
583 1 4 0 -1.78326 -9.29265 -38.5274 0 0 0
584 1 4 0 -2.2146 -7.82795 -37.2356 0 0 0
585 1 4 0 -1.01685 -7.80102 -35.6342 0 0 0
586 1 4 0 -0.834832 -7.90061 -33.645 0 0 0
587 1 4 0 -1.83893 -6.1958 -33.9372 0 0 0
588 1 4 0 -2.82281 -6.74365 -32.2844 0 0 0
589 1 4 0 -0.997146 -5.99224 -32.6042 0 0 0
590 1 4 0 -0.639661 -6.11519 -34.5682 0 0 0
591 1 4 0 -0.118024 -5.64405 -36.4406 0 0 0
592 1 4 0 1.49524 -6.17864 -37.4949 0 0 0
593 1 4 0 -10.0209 -1.54189 -40.0418 0 0 0
594 1 4 0 -10.0135 -1.56311 -38.042 0 0 0
595 1 4 0 -8.18349 -1.17716 -38.7505 0 0 0
596 1 4 0 -8.65777 -1.32039 -40.6882 0 0 0
597 1 4 0 -8.02241 0.295561 -39.6957 0 0 0
598 1 4 0 -8.5445 0.121826 -41.6185 0 0 0
599 1 4 0 -8.29621 -0.0951756 -43.5912 0 0 0
600 1 4 0 -8.26863 0.222251 -45.5656 0 0 0
601 1 4 0 -9.24561 1.42767 -46.8276 0 0 0
602 1 4 0 -7.85057 2.8397 -46.5826 0 0 0
603 1 4 0 -9.11498 -15.2409 -46.6511 0 0 0
604 1 4 0 -9.63707 -15.4147 -48.5739 0 0 0
605 1 4 0 -9.38877 -15.6317 -50.5465 0 0 0
606 1 4 0 -9.3612 -15.3142 -52.521 0 0 0
607 1 4 0 -10.3382 -14.1088 -53.7829 0 0 0
608 1 4 0 -11.9985 -12.9962 -53.8548 0 0 0
609 1 4 0 -12.006 -12.7184 -51.8742 0 0 0
610 1 4 0 -10.0869 -13.2676 -51.9988 0 0 0
611 1 4 0 -8.10287 -13.1175 -51.796 0 0 0
612 1 4 0 -9.79296 -12.1428 -51.356 0 0 0
613 1 4 0 -2.25868 -17.3443 -20.4002 0 0 0
614 1 4 0 -2.06784 -17.4147 -18.4106 0 0 0
615 1 4 0 -3.04482 -16.2093 -19.6725 0 0 0
616 1 4 0 -1.64978 -14.7973 -19.4275 0 0 0
617 1 4 0 -1.9976 -13.8679 -21.164 0 0 0
618 1 4 0 -0.695149 -12.4752 -20.5607 0 0 0
619 1 4 0 -2.35552 -11.3626 -20.6326 0 0 0
620 1 4 0 -2.06609 -11.0668 -22.5893 0 0 0
621 1 4 0 -0.872592 -12.626 -22.2091 0 0 0
622 1 4 0 -0.61742 -14.3174 -23.2455 0 0 0
623 1 4 0 -21.1026 -0.685978 -15.2508 0 0 0
624 1 4 0 -20.7112 -1.3502 -13.4054 0 0 0
625 1 4 0 -22.0556 -0.404841 -12.2657 0 0 0
626 1 4 0 -22.8497 -0.462034 -10.431 0 0 0
627 1 4 0 -21.1 -1.23671 -9.84913 0 0 0
628 1 4 0 -21.8193 -0.947301 -8.00553 0 0 0
629 1 4 0 -22.2293 -1.73231 -9.79876 0 0 0
630 1 4 0 -20.9752 -1.37342 -11.3148 0 0 0
631 1 4 0 -19.4462 -2.55775 -11.8242 0 0 0
632 1 4 0 -19.5144 -2.52533 -9.82565 0 0 0
633 1 4 0 -16.1783 -1.91236 -38.8978 0 0 0
634 1 4 0 -17.8386 -0.799699 -38.9697 0 0 0
635 1 4 0 -17.5492 -0.503955 -40.9264 0 0 0
636 1 4 0 -16.3557 -2.06312 -40.5462 0 0 0
637 1 4 0 -16.1005 -3.75451 -41.5826 0 0 0
638 1 4 0 -16.108 -3.4768 -39.602 0 0 0
639 1 4 0 -14.1889 -4.02597 -39.7266 0 0 0
640 1 4 0 -15.188 -4.59153 -41.3643 0 0 0
641 1 4 0 -15.1771 -5.23862 -43.2567 0 0 0
642 1 4 0 -13.1931 -5.08846 -43.0539 0 0 0
643 1 4 0 -2.92782 -6.25438 -10.911 0 0 0
644 1 4 0 -1.00873 -6.80355 -11.0356 0 0 0
645 1 4 0 -2.0078 -7.36911 -12.6733 0 0 0
646 1 4 0 -1.99698 -8.0162 -14.5657 0 0 0
647 1 4 0 -0.0129567 -7.86605 -14.3629 0 0 0
648 1 4 0 -1.70305 -6.89135 -13.9229 0 0 0
649 1 4 0 -3.06913 -6.55731 -12.5009 0 0 0
650 1 4 0 -3.86618 -7.5189 -14.0629 0 0 0
651 1 4 0 -3.98588 -8.12503 -15.9651 0 0 0
652 1 4 0 -4.69716 -6.99088 -17.451 0 0 0
653 1 4 0 -8.07419 -2.0715 -11.6025 0 0 0
654 1 4 0 -9.4477 -1.78859 -13.0285 0 0 0
655 1 4 0 -9.51591 -1.75618 -11.03 0 0 0
656 1 4 0 -9.49444 0.175675 -10.5128 0 0 0
657 1 4 0 -10.7649 1.70168 -10.2735 0 0 0
658 1 4 0 -10.6727 1.50648 -12.2618 0 0 0
659 1 4 0 -9.77972 2.08534 -13.9552 0 0 0
660 1 4 0 -8.55687 3.36167 -14.891 0 0 0
661 1 4 0 -7.06689 4.64203 -14.516 0 0 0
662 1 4 0 -6.62819 6.59332 -14.5135 0 0 0
663 1 4 0 -14.9432 -10.9586 -38.44 0 0 0
664 1 4 0 -14.0502 -10.3797 -40.1334 0 0 0
665 1 4 0 -12.8274 -9.10339 -41.0692 0 0 0
666 1 4 0 -12.3874 -11.054 -41.0314 0 0 0
667 1 4 0 -10.9228 -12.1177 -41.8821 0 0 0
668 1 4 0 -10.7623 -13.6544 -43.152 0 0 0
669 1 4 0 -12.3317 -14.4288 -42.1838 0 0 0
670 1 4 0 -10.8417 -13.1484 -41.8088 0 0 0
671 1 4 0 -11.4823 -14.9007 -42.5293 0 0 0
672 1 4 0 -13.122 -15.7097 -43.3398 0 0 0
673 1 4 0 -4.35638 -18.1397 -17.8267 0 0 0
674 1 4 0 -5.15343 -19.1012 -19.3888 0 0 0
675 1 4 0 -5.27313 -19.7074 -21.291 0 0 0
676 1 4 0 -5.98441 -18.5732 -22.7768 0 0 0
677 1 4 0 -7.79516 -17.8558 -23.2312 0 0 0
678 1 4 0 -8.30982 -18.3229 -21.3558 0 0 0
679 1 4 0 -9.41052 -19.5375 -22.5018 0 0 0
680 1 4 0 -11.3582 -19.5326 -22.9562 0 0 0
681 1 4 0 -12.5827 -19.2835 -21.3945 0 0 0
682 1 4 0 -13.169 -20.5815 -19.9904 0 0 0
683 1 4 0 -4.13333 -8.73984 -6.96801 0 0 0
684 1 4 0 -5.70273 -9.51418 -5.99982 0 0 0
685 1 4 0 -4.21275 -8.23382 -5.62481 0 0 0
686 1 4 0 -4.85336 -9.9861 -6.34531 0 0 0
687 1 4 0 -6.49304 -10.7951 -7.15584 0 0 0
688 1 4 0 -6.05434 -8.84383 -7.15333 0 0 0
689 1 4 0 -6.08262 -6.85409 -6.95298 0 0 0
690 1 4 0 -7.74976 -6.64435 -8.03772 0 0 0
691 1 4 0 -6.3833 -5.66181 -9.11819 0 0 0
692 1 4 0 -5.4483 -4.47966 -10.4328 0 0 0
693 1 4 0 -13.7317 -9.00818 -30.0469 0 0 0
694 1 4 0 -14.8324 -10.2227 -31.1929 0 0 0
695 1 4 0 -16.7801 -10.2179 -31.6473 0 0 0
696 1 4 0 -18.0045 -9.96877 -30.0856 0 0 0
697 1 4 0 -18.5908 -11.2667 -28.6815 0 0 0
698 1 4 0 -19.4218 -13.0816 -28.5564 0 0 0
699 1 4 0 -19.5051 -13.6893 -26.6528 0 0 0
700 1 4 0 -20.3487 -13.471 -24.8526 0 0 0
701 1 4 0 -18.7508 -13.8417 -25.9969 0 0 0
702 1 4 0 -18.4097 -15.349 -24.7275 0 0 0
703 1 4 0 -5.67696 -5.3923 -24.3394 0 0 0
704 1 4 0 -5.70524 -3.40256 -24.139 0 0 0
705 1 4 0 -7.37238 -3.19282 -25.2238 0 0 0
706 1 4 0 -6.00592 -2.21028 -26.3043 0 0 0
707 1 4 0 -5.07093 -1.02813 -27.6189 0 0 0
708 1 4 0 -5.75604 -2.89009 -27.3664 0 0 0
709 1 4 0 -5.80022 -2.66701 -29.3535 0 0 0
710 1 4 0 -6.71718 -3.51419 -30.916 0 0 0
711 1 4 0 -7.07002 -1.62714 -30.3551 0 0 0
712 1 4 0 -5.25142 -1.04418 -29.7611 0 0 0
713 1 4 0 -11.4698 -16.7697 -17.974 0 0 0
714 1 4 0 -11.5531 -17.3773 -16.0703 0 0 0
715 1 4 0 -12.3967 -17.1591 -14.2701 0 0 0
716 1 4 0 -10.7988 -17.5297 -15.4144 0 0 0
717 1 4 0 -10.4577 -19.0371 -14.145 0 0 0
718 1 4 0 -12.0273 -18.0344 -14.8737 0 0 0
719 1 4 0 -13.2945 -17.1616 -13.596 0 0 0
720 1 4 0 -13.162 -16.8825 -11.62 0 0 0
721 1 4 0 -12.8586 -17.5724 -9.76747 0 0 0
722 1 4 0 -13.5239 -19.4549 -9.88427 0 0 0
723 1 4 0 -18.7008 -7.29571 -48.5683 0 0 0
724 1 4 0 -18.745 -7.07264 -50.5553 0 0 0
725 1 4 0 -19.6619 -7.91981 -52.1178 0 0 0
726 1 4 0 -20.0148 -6.03277 -51.557 0 0 0
727 1 4 0 -19.2496 -5.28669 -49.8665 0 0 0
728 1 4 0 -19.31 -3.65489 -51.0213 0 0 0
729 1 4 0 -19.3382 -3.34399 -52.9968 0 0 0
730 1 4 0 -18.4896 -1.97501 -54.1823 0 0 0
731 1 4 0 -20.4742 -1.98524 -53.9355 0 0 0
732 1 4 0 -21.6336 -3.6022 -54.1391 0 0 0
733 1 4 0 -2.29503 -13.3749 -12.9596 0 0 0
734 1 4 0 -3.56228 -12.5022 -11.6819 0 0 0
735 1 4 0 -3.42976 -12.2231 -9.70595 0 0 0
736 1 4 0 -3.12639 -12.913 -7.85338 0 0 0
737 1 4 0 -3.79169 -14.7955 -7.97018 0 0 0
738 1 4 0 -4.76707 -15.855 -6.58241 0 0 0
739 1 4 0 -3.1827 -16.3686 -5.47514 0 0 0
740 1 4 0 -2.06773 -17.3368 -4.12633 0 0 0
741 1 4 0 -4.02598 -17.0795 -3.81168 0 0 0
742 1 4 0 -4.15372 -15.216 -3.09675 0 0 0
743 1 4 0 -13.6464 -11.1736 -52.4953 0 0 0
744 1 4 0 -13.7069 -9.54183 -53.6501 0 0 0
745 1 4 0 -14.9226 -7.95914 -53.5196 0 0 0
746 1 4 0 -16.2726 -8.51974 -52.1546 0 0 0
747 1 4 0 -16.6386 -10.4786 -52.3249 0 0 0
748 1 4 0 -18.0791 -10.3958 -50.9399 0 0 0
749 1 4 0 -18.0687 -10.393 -48.94 0 0 0
750 1 4 0 -18.6413 -10.0358 -47.0573 0 0 0
751 1 4 0 -20.3284 -10.1802 -45.9929 0 0 0
752 1 4 0 -22.3131 -10.1904 -45.7461 0 0 0
753 1 4 0 -4.65667 -10.6876 -15.944 0 0 0
754 1 4 0 -3.0723 -11.2011 -14.8368 0 0 0
755 1 4 0 -1.95732 -12.1694 -13.488 0 0 0
756 1 4 0 -3.91558 -11.912 -13.1733 0 0 0
757 1 4 0 -4.44873 -13.625 -12.2892 0 0 0
758 1 4 0 -3.9571 -14.4643 -10.5417 0 0 0
759 1 4 0 -5.89006 -14.7971 -10.9328 0 0 0
760 1 4 0 -5.95315 -13.2598 -12.2105 0 0 0
761 1 4 0 -5.75019 -13.0928 -10.2279 0 0 0
762 1 4 0 -6.5838 -11.3602 -9.67742 0 0 0
763 1 4 0 -14.4005 -0.780254 -43.8027 0 0 0
764 1 4 0 -15.6162 0.802439 -43.6721 0 0 0
765 1 4 0 -14.7675 2.17142 -44.8577 0 0 0
766 1 4 0 -15.5079 2.8355 -46.5929 0 0 0
767 1 4 0 -16.8579 2.27489 -45.2279 0 0 0
768 1 4 0 -17.2239 0.316048 -45.3981 0 0 0
769 1 4 0 -18.6644 0.398832 -44.0132 0 0 0
770 1 4 0 -18.654 0.401653 -42.0133 0 0 0
771 1 4 0 -19.2267 0.758826 -40.1306 0 0 0
772 1 4 0 -20.9138 0.614463 -39.0662 0 0 0
773 1 4 0 -9.92429 -13.7544 -15.2399 0 0 0
774 1 4 0 -10.052 -11.8909 -14.525 0 0 0
775 1 4 0 -11.985 -12.2237 -14.916 0 0 0
776 1 4 0 -12.0481 -10.6864 -16.1938 0 0 0
777 1 4 0 -10.049 -10.6647 -16.1364 0 0 0
778 1 4 0 -9.84605 -10.4977 -14.1537 0 0 0
779 1 4 0 -10.6797 -8.76509 -13.6033 0 0 0
780 1 4 0 -12.617 -8.27569 -13.6886 0 0 0
781 1 4 0 -13.9247 -9.78887 -13.6938 0 0 0
782 1 4 0 -12.409 -9.60299 -12.4023 0 0 0
783 1 4 0 -12.6932 -16.741 -25.0997 0 0 0
784 1 4 0 -14.1337 -16.6582 -23.7148 0 0 0
785 1 4 0 -14.1233 -16.6554 -21.7148 0 0 0
786 1 4 0 -14.6959 -16.2982 -19.8321 0 0 0
787 1 4 0 -16.6806 -16.3084 -19.5853 0 0 0
788 1 4 0 -16.9827 -14.515 -20.4173 0 0 0
789 1 4 0 -17.0431 -14.409 -18.421 0 0 0
790 1 4 0 -18.2024 -16.026 -18.6246 0 0 0
791 1 4 0 -19.9857 -15.8298 -19.5086 0 0 0